----- GAMESS execution script 'rungms' -----
This job is running on host lpqlx139.ups-tlse.fr
under operating system Linux at Mon May 28 12:04:41 CEST 2018
Available scratch disk space (Kbyte units) at beginning of the job is
Filesystem     1K-blocks     Used Available Use% Mounted on
tmpfs           16442312 10028340   6413972  61% /dev/shm
GAMESS temporary binary files will be written to /dev/shm/scemama
GAMESS supplementary output files will be written to scemama/scr
Copying input file form.gamess.inp to your run's scratch directory...

 Distributed Data Interface kickoff program.
 Initiating 1 compute processes on 1 nodes to run the following command:
 /home/scemama/GAMESS/gamess/gamess.00.x form.gamess 

          ******************************************************
          *         GAMESS VERSION = 14 FEB 2018 (R1)         *
          *             FROM IOWA STATE UNIVERSITY             *
          * M.W.SCHMIDT, K.K.BALDRIDGE, J.A.BOATZ, S.T.ELBERT, *
          *   M.S.GORDON, J.H.JENSEN, S.KOSEKI, N.MATSUNAGA,   *
          *          K.A.NGUYEN, S.J.SU, T.L.WINDUS,           *
          *       TOGETHER WITH M.DUPUIS, J.A.MONTGOMERY       *
          *         J.COMPUT.CHEM.  14, 1347-1363(1993)        *
          **************** 64 BIT INTEL VERSION ****************

  SINCE 1993, STUDENTS AND POSTDOCS WORKING AT IOWA STATE UNIVERSITY
  AND ALSO IN THEIR VARIOUS JOBS AFTER LEAVING ISU HAVE MADE IMPORTANT
  CONTRIBUTIONS TO THE CODE:
     IVANA ADAMOVIC, CHRISTINE AIKENS, YURI ALEXEEV, POOJA ARORA,
     ANDREY ASADCHEV, ROB BELL, PRADIPTA BANDYOPADHYAY, JONATHAN BENTZ,
     BRETT BODE, KURT BRORSEN, CALEB CARLIN, GALINA CHABAN, WEI CHEN,
     CHEOL HO CHOI, PAUL DAY, ALBERT DEFUSCO, NUWAN DESILVA, TIM DUDLEY,
     DMITRI FEDOROV, ALEX FINDLATER, GRAHAM FLETCHER, MARK FREITAG,
     KURT GLAESEMANN, ANASTASIA GUININA,
     DAN KEMP, GRANT MERRILL, NORIYUKI MINEZAWA, JONATHAN MULLIN,
     TAKESHI NAGATA, SEAN NEDD, HEATHER NETZLOFF, BOSILJKA NJEGIC, RYAN OLSON,
     MIKE PAK, BUU PHAM,
     SPENCER PRUITT, LUKE ROSKOP, JIM SHOEMAKER, LYUDMILA SLIPCHENKO,
     TONY SMITH, SAROM SOK LEANG, JIE SONG, TETSUYA TAKETSUGU, SIMON WEBB,
     PENG XU, SOOHAENG YOO, FEDERICO ZAHARIEV

  ADDITIONAL CODE HAS BEEN PROVIDED BY COLLABORATORS IN OTHER GROUPS:
     IOWA STATE UNIVERSITY:
          JOE IVANIC, AARON WEST, LAIMUTIS BYTAUTAS, KLAUS RUEDENBERG
     UNIVERSITY OF TOKYO: KIMIHIKO HIRAO, TAKAHITO NAKAJIMA,
          TAKAO TSUNEDA, MUNEAKI KAMIYA, SUSUMU YANAGISAWA,
          KIYOSHI YAGI, MAHITO CHIBA, SEIKEN TOKURA, NAOAKI KAWAKAMI
     UNIVERSITY OF AARHUS: FRANK JENSEN
     UNIVERSITY OF IOWA: VISVALDAS KAIRYS, HUI LI
     NATIONAL INST. OF STANDARDS AND TECHNOLOGY: WALT STEVENS, DAVID GARMER
     UNIVERSITY OF PISA: BENEDETTA MENNUCCI, JACOPO TOMASI
     UNIVERSITY OF MEMPHIS: HENRY KURTZ, PRAKASHAN KORAMBATH
     UNIVERSITY OF ALBERTA: TOBY ZENG, MARIUSZ KLOBUKOWSKI
     UNIVERSITY OF NEW ENGLAND: MARK SPACKMAN
     MIE UNIVERSITY: HIROAKI UMEDA
     NAT. INST. OF ADVANCED INDUSTRIAL SCIENCE AND TECHNOLOGY: KAZUO KITAURA
     MICHIGAN STATE UNIVERSITY:
          KAROL KOWALSKI, MARTA WLOCH, JEFFREY GOUR, JESSE LUTZ,
          WEI LI, PIOTR PIECUCH
     UNIVERSITY OF SILESIA: MONIKA MUSIAL, STANISLAW KUCHARSKI
     FACULTES UNIVERSITAIRES NOTRE-DAME DE LA PAIX:
          OLIVIER QUINET, BENOIT CHAMPAGNE
     UNIVERSITY OF CALIFORNIA - SANTA BARBARA: BERNARD KIRTMAN
     INSTITUTE FOR MOLECULAR SCIENCE:
          KAZUYA ISHIMURA, MICHIO KATOUDA, AND SHIGERU NAGASE
     UNIVERSITY OF NOTRE DAME: ANNA POMOGAEVA, DAN CHIPMAN
     KYUSHU UNIVERSITY:
          HARUYUKI NAKANO,
          FENG LONG GU, JACEK KORCHOWIEC, MARCIN MAKOWSKI, AND YURIKO AOKI,
          HIROTOSHI MORI AND EISAKU MIYOSHI
     PENNSYLVANIA STATE UNIVERSITY:
          TZVETELIN IORDANOV, CHET SWALINA, JONATHAN SKONE,
          SHARON HAMMES-SCHIFFER
     WASEDA UNIVERSITY:
          MASATO KOBAYASHI, TOMOKO AKAMA, TSUGUKI TOUMA,
          TAKESHI YOSHIKAWA, YASUHIRO IKABATA, JUNJI SEINO,
          YUYA NAKAJIMA, HIROMI NAKAI
     NANJING UNIVERSITY: SHUHUA LI
     UNIVERSITY OF NEBRASKA:
          PEIFENG SU, DEJUN SI, NANDUN THELLAMUREGE, YALI WANG, HUI LI
     UNIVERSITY OF ZURICH: ROBERTO PEVERATI, KIM BALDRIDGE
     N. COPERNICUS UNIVERSITY AND JACKSON STATE UNIVERSITY:
          MARIA BARYSZ
     UNIVERSITY OF COPENHAGEN: Jimmy Kromann, CASPER STEINMANN
     TOKYO INSTITUTE OF TECHNOLOGY: HIROYA NAKATA
     NAGOYA UNIVERSITY: YOSHIO NISHIMOTO, STEPHAN IRLE
     MOSCOW STATE UNIVERSITY: VLADIMIR MIRONOV

 EXECUTION OF GAMESS BEGUN Mon May 28 12:04:41 2018

            ECHO OF THE FIRST FEW INPUT CARDS -
 INPUT CARD> $CONTRL ECP=READ runtyp=energy scftyp=MCSCF MULT=1                             
 INPUT CARD>         COORD=CART NORMF=1 UNITS=ANGS  $END                                    
 INPUT CARD> $SYSTEM MWORDS=1500 $END                                                       
 INPUT CARD> $BASIS                                                                         
 INPUT CARD>        EXTFIL=.TRUE.                                                           
 INPUT CARD>        GBASIS=BFD-Da                                                           
 INPUT CARD> $END                                                                           
 INPUT CARD> $GUESS                                                                         
 INPUT CARD>  GUESS=MOREAD NORB=46                                                          
 INPUT CARD> $END                                                                           
 INPUT CARD> $DRT                                                                           
 INPUT CARD>  MXNINT=50000                                                                  
 INPUT CARD>  NMCC=5  NDOC=1 NVAL=1  NEXT=-1                                                
 INPUT CARD>  GROUP=C1  ISTSYM=1                                                            
 INPUT CARD>  FORS=.TRUE.                                                                   
 INPUT CARD>  NPRT=0                                                                        
 INPUT CARD> $END                                                                           
 INPUT CARD> $MCSCF CISTEP=GUGA  FULLNR=.TRUE.  MAXIT=200 $END                              
 INPUT CARD> $GUGDIA PRTTOL=0.001 KPRINT=2 NSTATE=2  ITERMX=200  $END                       
 INPUT CARD>                                                                                
 INPUT CARD> $GUGDM2                                                                        
 INPUT CARD>  WSTATE(1)=0.5,0.5                                                             
 INPUT CARD> $END                                                                           
 INPUT CARD>                                                                                
 INPUT CARD> $DATA                                                                          
 INPUT CARD>Formaldehyde CC3/aug-cc-pVTZ geometry                                           
 INPUT CARD> Cnv 2                                                                          
 INPUT CARD>                                                                                
 INPUT CARD>  C 6.0   0.00000000       0.00000000      -0.60298508                          
 INPUT CARD>  O 8.0   0.00000000       0.00000000       0.60539398                          
 INPUT CARD>  H 1.0   0.00000000       0.93467313      -1.18217476                          
 INPUT CARD>  H 1.0   0.00000000      -0.93467313      -1.18217476                          
 INPUT CARD> $END                                                                           
 INPUT CARD>                                                                                
 INPUT CARD> $ECP                                                                           
 INPUT CARD>C-ECP       GEN 2 1                                                             
 INPUT CARD>3                                                                               
 INPUT CARD>   4.00000000 1 8.35973821                                                      
 INPUT CARD>  33.43895285 3 4.48361888                                                      
 INPUT CARD> -19.17537323 2 3.93831258                                                      
 INPUT CARD>1                                                                               
 INPUT CARD>  22.55164191 2 5.02991637                                                      
 INPUT CARD>O GEN 2 1                                                                       
 INPUT CARD>3                                                                               
 INPUT CARD>6.00000000 1 9.29793903                                                         
 INPUT CARD>55.78763416 3 8.86492204                                                        
 INPUT CARD>-38.81978498 2 8.62925665                                                       
 INPUT CARD>1                                                                               
 INPUT CARD>38.41914135 2 8.71924452                                                        
 INPUT CARD>H-ECP  GEN 0 0                                                                  
 1500000000 WORDS OF MEMORY AVAILABLE


                    * * * WARNING * * *
 OLD KEYWORD COORD=CART SELECTED, AUTOMATICALLY CHANGED TO COORD=PRINAXIS.
 YOUR MOLECULE'S COORDINATES WILL BE CHANGED TO PRINCIPAL AXES BY
   A) TRANSLATION TO THE CENTER OF MASS, THEN
   B) ROTATION TO HAVE A DIAGONAL MOMENT OF INERTIA TENSOR.

 HOWEVER, NOTHING ELSE IN YOUR INPUT WILL BE ROTATED IN THE SAME WAY,
 SO IF YOU HAVE A $VEC, $VIB, $GRAD, $HESS, EFP PARTICLE COORDINATES,
 OR ANYTHING ELSE THAT DEPENDS ON THE INITIAL ORIENTATION, THAT DATA
 WILL NOT BE USED CORRECTLY IN THIS RUN.

 THE PURPOSE OF COORD=PRINAXIS IS TO BE USED ONCE, ONLY AT THE VERY
 BEGINNING OF A SERIES OF COMPUTATIONS, PERHAPS TO FIND THE SYMMETRY
 UNIQUE ATOMS FROM AN ARBITRARY INITIAL ORIENTATION.

 AFTER THE FIRST RUN, YOU SHOULD USE ONLY COORD=UNIQUE, TO ENSURE THAT
 THE COORDINATES WHICH YOU READ IN ARE THE COORDINATES THAT ARE USED.


     $BASIS REQUESTS READING THE "BFD-DA  " BASIS SET FROM AN EXTERNAL FILE


     RUN TITLE
     ---------
 Formaldehyde CC3/aug-cc-pVTZ geometry                                           

 THE POINT GROUP OF THE MOLECULE IS CNV     
 THE ORDER OF THE PRINCIPAL AXIS IS     2

 THE MOMENTS OF INERTIA ARE (AMU-ANGSTROM**2)
 IXX=    14.803   IYY=    13.042   IZZ=     1.761

 THE EXTERNAL BASIS SET FILE BEING READ IS
     "/home/scemama/GAMESS/gamess/BFD_Basis.data_Hw1"

 ATOM      ATOMIC                      COORDINATES (BOHR)
           CHARGE         X                   Y                   Z
 C           6.0     0.0000000000        0.0000000000       -1.1435412502
 O           8.0     0.0000000000        0.0000000000        1.1399640625
 H           1.0    -0.0000000000       -1.7662761038       -2.2380510404
 H           1.0     0.0000000000        1.7662761038       -2.2380510404

          INTERNUCLEAR DISTANCES (ANGS.)
          ------------------------------

                1 C          2 O          3 H          4 H     

   1 C       0.0000000    1.2083791 *  1.0995793 *  1.0995793 *
   2 O       1.2083791 *  0.0000000    2.0171802 *  2.0171802 *
   3 H       1.0995793 *  2.0171802 *  0.0000000    1.8693463 *
   4 H       1.0995793 *  2.0171802 *  1.8693463 *  0.0000000  

  * ... LESS THAN  3.000


     ATOMIC BASIS SET
     ----------------
 THE CONTRACTED PRIMITIVE FUNCTIONS HAVE BEEN UNNORMALIZED

  SHELL TYPE  PRIMITIVE        EXPONENT          CONTRACTION COEFFICIENT(S)

 C         

      1   S       1             0.0513440    0.013991000000
      1   S       2             0.1026190    0.169852000000
      1   S       3             0.2051000    0.397529000000
      1   S       4             0.4099240    0.380369000000
      1   S       5             0.8192970    0.180113000000
      1   S       6             1.6374940   -0.033512000000
      1   S       7             3.2727910   -0.121499000000
      1   S       8             6.5411870    0.015176000000
      1   S       9            13.0735940   -0.000705000000

      2   S      10             0.1278520    1.000000000000

      3   S      11             0.0469000    1.000000000000

      4   P      12             0.0292810    0.001787000000
      4   P      13             0.0585470    0.050426000000
      4   P      14             0.1170630    0.191634000000
      4   P      15             0.2340640    0.302667000000
      4   P      16             0.4680030    0.289868000000
      4   P      17             0.9357570    0.210979000000
      4   P      18             1.8710160    0.112024000000
      4   P      19             3.7410350    0.054425000000
      4   P      20             7.4800760    0.021931000000

      5   P      21             0.1491610    1.000000000000

      6   P      22             0.0404100    1.000000000000

      7   D      23             0.5611600    1.000000000000

 O         

      8   S      24             0.1253460    0.055741000000
      8   S      25             0.2680220    0.304848000000
      8   S      26             0.5730980    0.453752000000
      8   S      27             1.2254290    0.295926000000
      8   S      28             2.6202770    0.019567000000
      8   S      29             5.6028180   -0.128627000000
      8   S      30            11.9802450    0.012024000000
      8   S      31            25.6168010    0.000407000000
      8   S      32            54.7752160   -0.000076000000

      9   S      33             0.2585510    1.000000000000

     10   S      34             0.0789600    1.000000000000

     11   P      35             0.0835980    0.044958000000
     11   P      36             0.1670170    0.150175000000
     11   P      37             0.3336730    0.255999000000
     11   P      38             0.6666270    0.281879000000
     11   P      39             1.3318160    0.242835000000
     11   P      40             2.6607610    0.161134000000
     11   P      41             5.3157850    0.082308000000
     11   P      42            10.6201080    0.039899000000
     11   P      43            21.2173180    0.004679000000

     12   P      44             0.2678650    1.000000000000

     13   P      45             0.0685600    1.000000000000

     14   D      46             1.2327530    1.000000000000

 H         

     18   S      47             6.4641755    0.068156440000
     18   S      48             1.1389146    0.363254590000
     18   S      49             0.2800325    0.752410060000

     19   S      50             0.0590840    1.000000000000

     20   P      51             0.5136806    1.000000000000

 TOTAL NUMBER OF BASIS SET SHELLS             =   20
 NUMBER OF CARTESIAN GAUSSIAN BASIS FUNCTIONS =   46
 NUMBER OF ELECTRONS                          =   16
 CHARGE OF MOLECULE                           =    0
 SPIN MULTIPLICITY                            =    1
 NUMBER OF OCCUPIED ORBITALS (ALPHA)          =    8
 NUMBER OF OCCUPIED ORBITALS (BETA )          =    8
 TOTAL NUMBER OF ATOMS                        =    4
 THE NUCLEAR REPULSION ENERGY IS       31.2758099380
 NOTE THIS RUN IS USING CORE POTENTIALS, AND THE NUMBER OF ELECTRONS,
 OCCUPIED ORBITALS, AND NUCLEAR REPULSION ENERGY WILL BE ADJUSTED BELOW
 AFTER REMOVAL OF THE CORE CHARGES.

     $CONTRL OPTIONS
     ---------------
 SCFTYP=MCSCF        RUNTYP=ENERGY       EXETYP=RUN     
 MPLEVL=       0     CITYP =NONE         CCTYP =NONE         VBTYP =NONE    
 DFTTYP=NONE         TDDFT =NONE    
 MULT  =       1     ICHARG=       0     NZVAR =       0     COORD =PRINAXIS
 PP    =READ         RELWFN=NONE         LOCAL =NONE         NUMGRD=       F
 ISPHER=      -1     NOSYM =       0     MAXIT =      30     UNITS =ANGS    
 PLTORB=       F     MOLPLT=       F     AIMPAC=       F     FRIEND=        
 NPRINT=       7     IREST =       0     GEOM  =INPUT   
 NORMF =       1     NORMP =       0     ITOL  =      20     ICUT  =       9
 INTTYP=BEST         GRDTYP=BEST         QMTTOL= 1.0E-06

     $SYSTEM OPTIONS
     ---------------
  REPLICATED MEMORY=  1500000000 WORDS (ON EVERY NODE).
 DISTRIBUTED MEMDDI=           0 MILLION WORDS IN AGGREGATE,
 MEMDDI DISTRIBUTED OVER   1 PROCESSORS IS           0 WORDS/PROCESSOR.
 TOTAL MEMORY REQUESTED ON EACH PROCESSOR=  1500000000 WORDS.
 TIMLIM=      525600.00 MINUTES, OR     365.0 DAYS.
 PARALL= F  BALTYP=  DLB     KDIAG=    0  COREFL= F
 MXSEQ2=     300 MXSEQ3=     150  mem10=         0

          --------------
          ECP POTENTIALS
          --------------

 PARAMETERS FOR "C-ECP   " ON ATOM    1 WITH ZCORE   2 AND LMAX  1 ARE
 FOR L= 1      COEFF    N           ZETA
    1        4.00000    1        8.35974
    2       33.43895    3        4.48362
    3      -19.17537    2        3.93831
 FOR L= 0      COEFF    N           ZETA
    1       22.55164    2        5.02992

 PARAMETERS FOR "O       " ON ATOM    2 WITH ZCORE   2 AND LMAX  1 ARE
 FOR L= 1      COEFF    N           ZETA
    1        6.00000    1        9.29794
    2       55.78763    3        8.86492
    3      -38.81978    2        8.62926
 FOR L= 0      COEFF    N           ZETA
    1       38.41914    2        8.71924

 PARAMETERS FOR "H-ECP   " ON ATOM    3 WITH ZCORE   0 AND LMAX  0 ARE
 FOR L= 0      COEFF    N           ZETA
    1        1.00000    1       25.00000
    2       25.00000    3       10.82182
    3       -8.22801    2        9.36862

 PARAMETERS FOR "H-ECP   " ON ATOM    4 ARE THE SAME AS ATOM   3

 THE ECP RUN REMOVES    4 CORE ELECTRONS, AND THE SAME NUMBER OF PROTONS.
 NUMBER OF ELECTRONS KEPT IN THE CALCULATION IS =   12
 NUMBER OF OCCUPIED ORBITALS (ALPHA) KEPT IS    =    6
 NUMBER OF OCCUPIED ORBITALS (BETA ) KEPT IS    =    6
 THE ADJUSTED NUCLEAR REPULSION ENERGY=       17.7912948702
          ECP ANGULAR INTS.........     0.00 SECONDS

          ----------------
          PROPERTIES INPUT
          ----------------

     MOMENTS            FIELD           POTENTIAL          DENSITY
 IEMOM =       1   IEFLD =       0   IEPOT =       0   IEDEN =       0
 WHERE =COMASS     WHERE =NUCLEI     WHERE =NUCLEI     WHERE =NUCLEI  
 OUTPUT=BOTH       OUTPUT=BOTH       OUTPUT=BOTH       OUTPUT=BOTH    
 IEMINT=       0   IEFINT=       0                     IEDINT=       0
                                                       MORB  =       0

     -------------------------------
     INTEGRAL TRANSFORMATION OPTIONS
     -------------------------------
     NWORD  =            0
     CUTOFF = 1.0E-09     MPTRAN =       0
     DIRTRF =       F     AOINTS =DUP     

          ----------------------
          MCSCF INPUT PARAMETERS
          ----------------------
 CONVERGER SELECTION: FOCAS = F  SOSCF = F  FULLNR = T  QUD = F  JACOBI = F
 SECULAR EQUATION METHOD CISTEP = GUGA    
 --- GENERAL INPUT OPTIONS:
 MAXIT =     200  MICIT =       1  ACURCY= 1.000E-05
 DAMP  =   0.000  CANONC=       T  ENGTOL= 1.000E-10
 EKT   =       F  NPUNCH=       2  NWORD =         0
 REGENERATE CI AFTER CONVERGENCE = NONE    
 DIABATIZATION AFTER CONVERGENCE =        F
 --- INPUT FOR FULLNR CONVERGER:
 METHOD=DM2       FORS  =       F  DROPC =       T
 LINSER=       F  FCORE =       F  NORB  =      46

          ----------------------
          INTEGRAL INPUT OPTIONS
          ----------------------
 NOPK  =       1 NORDER=       0 SCHWRZ=       F

     ------------------------------------------
     THE POINT GROUP IS CNV, NAXIS= 2, ORDER= 4
     ------------------------------------------

     DIMENSIONS OF THE SYMMETRY SUBSPACES ARE
 A1  =   22     A2  =    3     B1  =    9     B2  =   12

 ..... DONE SETTING UP THE RUN .....
 STEP CPU TIME =     0.01 TOTAL CPU TIME =          0.0 (      0.0 MIN)
 TOTAL WALL CLOCK TIME=          0.0 SECONDS, CPU UTILIZATION IS   100.00%

          ********************
          1 ELECTRON INTEGRALS
          ********************
 TIME TO DO ORDINARY INTEGRALS=      0.00
 TIME TO DO      ECP INTEGRALS=      0.01
 TIME TO DO   DIPOLE INTEGRALS=      0.00
 ...... END OF ONE-ELECTRON INTEGRALS ......
 STEP CPU TIME =     0.01 TOTAL CPU TIME =          0.0 (      0.0 MIN)
 TOTAL WALL CLOCK TIME=          0.1 SECONDS, CPU UTILIZATION IS    25.00%

          -------------
          GUESS OPTIONS
          -------------
          GUESS =MOREAD            NORB  =      46          NORDER=       0
          MIX   =       F          PRTMO =       F          PUNMO =       F
          TOLZ  = 1.0E-08          TOLE  = 1.0E-05
          SYMDEN=       F          PURIFY=       F

 INITIAL GUESS ORBITALS GENERATED BY MOREAD   ROUTINE.

 SYMMETRIES FOR INITIAL GUESS ORBITALS FOLLOW.   BOTH SET(S).
     7 ORBITALS ARE OCCUPIED (    0 CORE ORBITALS).
     1=A1       2=A1       3=B2       4=A1       5=B1       6=B2       7=B1  
     8=A1       9=B2      10=A1      11=B1      12=A1      13=B2      14=A1  
    15=B1      16=B2      17=A1      18=A1      19=A1      20=B2      21=B1  
    22=A1      23=B2      24=A2      25=A1      26=B1      27=B2      28=B2  
    29=B1      30=A1      31=A1      32=B1      33=A1      34=B2      35=A2  
    36=A1      37=A1      38=B2      39=A1      40=A1      41=A2      42=A1  
    43=B1      44=B2      45=A1      46=A1  
 ...... END OF INITIAL ORBITAL SELECTION ......
 STEP CPU TIME =     0.01 TOTAL CPU TIME =          0.0 (      0.0 MIN)
 TOTAL WALL CLOCK TIME=          0.1 SECONDS, CPU UTILIZATION IS    37.50%

                    ----------------------
                    AO INTEGRAL TECHNOLOGY
                    ----------------------
     S,P,L SHELL ROTATED AXIS INTEGRALS, REPROGRAMMED BY
        KAZUYA ISHIMURA (IMS) AND JOSE SIERRA (SYNSTAR).
     S,P,D,L SHELL ROTATED AXIS INTEGRALS PROGRAMMED BY
        KAZUYA ISHIMURA (INSTITUTE FOR MOLECULAR SCIENCE).
     S,P,D,F,G SHELL TO TOTAL QUARTET ANGULAR MOMENTUM SUM 5,
        ERIC PROGRAM BY GRAHAM FLETCHER (ELORET AND NASA ADVANCED
        SUPERCOMPUTING DIVISION, AMES RESEARCH CENTER).
     S,P,D,F,G,L SHELL GENERAL RYS QUADRATURE PROGRAMMED BY
        MICHEL DUPUIS (PACIFIC NORTHWEST NATIONAL LABORATORY).

          --------------------
          2 ELECTRON INTEGRALS
          --------------------

 THE -PK- OPTION IS OFF, THE INTEGRALS ARE NOT IN SUPERMATRIX FORM.
 STORING   15000 INTEGRALS/RECORD ON DISK, USING 12 BYTES/INTEGRAL.
 TWO ELECTRON INTEGRAL EVALUATION REQUIRES   90606 WORDS OF MEMORY.
 II,JST,KST,LST =  1  1  1  1 NREC =         1 INTLOC =    1
 II,JST,KST,LST =  2  1  1  1 NREC =         1 INTLOC =    2
 II,JST,KST,LST =  3  1  1  1 NREC =         1 INTLOC =    7
 II,JST,KST,LST =  4  1  1  1 NREC =         1 INTLOC =   22
 II,JST,KST,LST =  5  1  1  1 NREC =         1 INTLOC =   67
 II,JST,KST,LST =  6  1  1  1 NREC =         1 INTLOC =  214
 II,JST,KST,LST =  7  1  1  1 NREC =         1 INTLOC =  571
 II,JST,KST,LST =  8  1  1  1 NREC =         1 INTLOC = 2257
 II,JST,KST,LST =  9  1  1  1 NREC =         1 INTLOC = 3338
 II,JST,KST,LST = 10  1  1  1 NREC =         1 INTLOC = 4639
 II,JST,KST,LST = 11  1  1  1 NREC =         1 INTLOC = 6193
 II,JST,KST,LST = 12  1  1  1 NREC =         1 INTLOC =11262
 II,JST,KST,LST = 13  1  1  1 NREC =         2 INTLOC = 3434
 II,JST,KST,LST = 14  1  1  1 NREC =         2 INTLOC =13192
 II,JST,KST,LST = 15  1  1  1 NREC =         4 INTLOC =12352
 II,JST,KST,LST = 16  1  1  1 NREC =         4 INTLOC =12352
 II,JST,KST,LST = 17  1  1  1 NREC =         4 INTLOC =12352
 II,JST,KST,LST = 18  1  1  1 NREC =         4 INTLOC =12352
 II,JST,KST,LST = 19  1  1  1 NREC =         5 INTLOC =12074
 II,JST,KST,LST = 20  1  1  1 NREC =         6 INTLOC =14547
 TOTAL NUMBER OF NONZERO TWO-ELECTRON INTEGRALS =              155337
         11 INTEGRAL RECORDS WERE STORED ON DISK FILE  8.
  ...... END OF TWO-ELECTRON INTEGRALS .....
 STEP CPU TIME =     0.06 TOTAL CPU TIME =          0.1 (      0.0 MIN)
 TOTAL WALL CLOCK TIME=          0.1 SECONDS, CPU UTILIZATION IS    60.00%

          -----------------
          MCSCF CALCULATION
          -----------------

 ----- NUCLEAR ENERGY ----- =        17.7912948702

          -----------------------     ----------------------------
          GUGA DISTINCT ROW TABLE     WRITTEN BY B.R.BROOKS,P.SAXE
          -----------------------     ----------------------------

      GROUP=C1           NPRT=       0
       FORS=       T   INTACT=       F
       FOCI=       F   MXNINT=   50000
       SOCI=       F   MXNEME=   10000
     IEXCIT=       0

      -CORE-    -INTERNAL-  -EXTERNAL-
     NFZC=   0   NDOC=   1   NEXT=   0
     NMCC=   5   NAOS=   0   NFZV=   0
                 NBOS=   0
                 NALP=   0
                 NVAL=   1

 THE MAXIMUM ELECTRON EXCITATION WILL BE   2

 THE FOLLOWING ANALYSIS IS BASED UPON THE $DATA POINT GROUP:

 SYMMETRIES FOR THE   5 CORE,   2 ACTIVE,   0 EXTERNAL MO-S ARE
     CORE= A1    A1    B2    A1    B1  
   ACTIVE= B2    B1  
           DOC   VAL 

 THE FOLLOWING ANALYSIS IS BASED UPON THE $DRT POINT GROUP:

 SYMMETRIES FOR THE   5 CORE,   2 ACTIVE,   0 EXTERNAL MO-S ARE
     CORE= A     A     A     A     A   
   ACTIVE= A     A   
           DOC   VAL 

 MOLECULAR CHARGE          =    0
 NUMBER OF ALPHA ELECTRONS =    6
 NUMBER OF  BETA ELECTRONS =    6

 THE ELECTRONIC STATE IS  1-A   

 THE DISTINCT ROW TABLE HAS         5 ROWS.
  THE WAVEFUNCTION CONTAINS         3 WALKS (CSF-S).

 TOTAL NUMBER OF INTEGRALS =          9
 NUMBER OF INTEGRALS/GROUP =          9
 NUMBER OF INTEGRAL GROUPS =          1
 MAXIMUM RECORD SIZES ARE     500 FOR UNIT 11      22 FOR UNIT 12
                            30001 FOR UNIT 15   30001 FOR UNIT 16
 ...... END OF -DRT- GENERATION ...... 
 STEP CPU TIME =     3.46 TOTAL CPU TIME =          3.6 (      0.1 MIN)
 TOTAL WALL CLOCK TIME=          3.7 SECONDS, CPU UTILIZATION IS    96.73%

     --------------------------------------------
     PARTIAL TWO ELECTRON INTEGRAL TRANSFORMATION
     --------------------------------------------

 NUMBER OF CORE MOLECULAR ORBITALS     =    5
 NUMBER OF OCCUPIED MOLECULAR ORBITALS =    7
 TOTAL NUMBER OF MOLECULAR ORBITALS    =   46
 TOTAL NUMBER OF ATOMIC ORBITALS       =   46
 THRESHOLD FOR KEEPING TRANSFORMED 2E- INTEGRALS = 1.000E-09
 AO INTEGRALS WILL BE READ IN FROM DISK...

 PLAN A: REQUIREMENTS FOR FULLY IN-MEMORY TRANSFORMATION:
 # OF WORDS AVAILABLE =           1500000000
 # OF WORDS NEEDED    =               418756

 CHOOSING IN MEMORY PARTIAL TRANSFORMATION...
 TOTAL NUMBER OF TRANSFORMED 2E- INTEGRALS KEPT =        17392
 ----- FROZEN CORE ENERGY =       -38.8208915543
 ... END OF INTEGRAL TRANSFORMATION ...
 STEP CPU TIME =     0.02 TOTAL CPU TIME =          3.6 (      0.1 MIN)
 TOTAL WALL CLOCK TIME=          3.8 SECONDS, CPU UTILIZATION IS    94.95%

          ------------------------
          GUGA-CI INTEGRAL SORTING
          ------------------------

     80017 WORDS NEEDED TO SORT              9 GUGA INTEGRALS IN MEMORY
1500000000 WORDS ARE AVAILABLE
 CHOOSING IN-MEMORY SORTING...
 IN CORE ALGORITHM SORTED              3 NON-ZERO 1E- INTEGRALS
 IN CORE ALGORITHM SORTED              4 NON-ZERO 2E- INTEGRALS
 ...... END OF INTEGRAL SORTING ...... 
 STEP CPU TIME =     0.00 TOTAL CPU TIME =          3.6 (      0.1 MIN)
 TOTAL WALL CLOCK TIME=          3.8 SECONDS, CPU UTILIZATION IS    94.69%

 -------------------------     ---------------------------------------
 ENERGY MATRIX CALCULATION     WRITTEN BY B.R.BROOKS,W.D.LAIDIG,P.SAXE
 -------------------------     ---------------------------------------

 COMPUTING THE HAMILTONIAN FOR THE         3 CSF-S...

           8 IS THE TOTAL NUMBER OF GENERATED LOOPS
           8 WERE CREATED BY THE LOOP-DRIVEN ALGORITHM
           0 WERE CREATED IMPLICITLY

           6 IS THE TOTAL NUMBER OF PROCESSED LOOPS
           5     DIAGONAL LOOPS ARE STORED ON WORK15 IN     1 BUFFERS OF  10000 ELEMENTS.
           1 OFF DIAGONAL LOOPS ARE STORED ON WORK16 IN     1 BUFFERS OF  10000 ELEMENTS.
 ...... END OF ENERGY MATRIX CALCULATION ...... 
 STEP CPU TIME =     0.00 TOTAL CPU TIME =          3.6 (      0.1 MIN)
 TOTAL WALL CLOCK TIME=          3.8 SECONDS, CPU UTILIZATION IS    94.44%

          -----------------------------------------
          DAVIDSON METHOD CI-MATRIX DIAGONALIZATION
                   WRITTEN BY STEVE ELBERT
          -----------------------------------------
 NUMBER OF STATES REQUESTED =     2
 MAX. NUMB. OF EXPAN. VEC   =    30
 MAX. NUMB. IMPROVED STATES =     2
 MAX. NUMB. OF ITERATIONS   =   200
 CONVERGENCE CRITERION      =    1.0E-05

 CHOOSING TO SOLVE SECULAR EQUATION IN MEMORY
 NUMBER OF WORDS AVAILABLE = 1500000000
 NUMBER OF WORDS USED      =      30987
 ENERGY MATRIX BUFFER SIZE =      10000
 SOLUTION FOUND WITH DIRECT METHOD

 STATE #    1  ENERGY =     -22.443828711

      CSF      COEF    OCCUPANCY (IGNORING CORE)
      ---      ----    --------- --------- -----
        1    0.999982  20
        3   -0.005944  02

 STATE #    2  ENERGY =     -22.160757522

      CSF      COEF    OCCUPANCY (IGNORING CORE)
      ---      ----    --------- --------- -----
        2    1.000000  11

 RENORMALIZED DAVIDSON CORRECTION FOR     1-REFERENCE CI.
 C0SQ= 0.999965 EREF=      -22.443800 E-E(REF)=   0.000029 E(Q)=   0.000000
 GIVES A E(SD+Q) ESTIMATE OF      -22.4438287116
 ...... END OF CI-MATRIX DIAGONALIZATION ......
 STEP CPU TIME =     0.00 TOTAL CPU TIME =          3.6 (      0.1 MIN)
 TOTAL WALL CLOCK TIME=          3.8 SECONDS, CPU UTILIZATION IS    94.44%

          -------------------------------------
          2-PARTICLE DENSITY MATRIX CALCULATION
          -------------------------------------
 2 BODY DENSITY IS AN AVERAGE OF  2 STATE(S).
   STATE    WEIGHT          ENERGY
     1    0.500000      -22.4438287106
     2    0.500000      -22.1607575218
            8 -DM2- LOOPS WERE GENERATED
            8 WERE CREATED BY THE LOOP-DRIVEN ALGORITHM
            0 WERE CREATED IMPLICITLY
          1 RECORDS OF LENGTH 50000 WRITTEN TO FILE 15
 ...... END OF 2-PARTICLE DENSITY MATRIX CALCULATION ......
 STEP CPU TIME =     0.00 TOTAL CPU TIME =          3.6 (      0.1 MIN)
 TOTAL WALL CLOCK TIME=          3.8 SECONDS, CPU UTILIZATION IS    94.44%

          ----------------------------------
          2-PARTICLE DENSITY MATRIX LABELING
          ----------------------------------
      96426 WORDS NEEDED TO LABEL DM2 MATRIX
          1 RECORDS OF LENGTH 50000  READ FROM FILE 15
          1 RECORDS OF LENGTH 15000 WRITTEN TO FILE 16
 ...... END OF 2-PARTICLE DENSITY MATRIX LABELING ......
 STEP CPU TIME =     0.00 TOTAL CPU TIME =          3.6 (      0.1 MIN)
 TOTAL WALL CLOCK TIME=          3.8 SECONDS, CPU UTILIZATION IS    94.44%

          --------------
          -DM2- ORDERING
          --------------
      30010 WORDS NEEDED (1500000000 AVAILABLE) TO ORDER DM2 IN MEMORY
 CHOOSING IN MEMORY ORDERING...
                               1 RECORDS OF LENGTH 15000  READ FROM FILE 16
          4 DM2 VALUES IN      1 RECORDS OF LENGTH 15000 WRITTEN TO FILE 15
 ...... END OF -DM2- ORDERING ...... 
 STEP CPU TIME =     0.00 TOTAL CPU TIME =          3.6 (      0.1 MIN)
 TOTAL WALL CLOCK TIME=          3.8 SECONDS, CPU UTILIZATION IS    94.44%

     --------------------------------     -----------------------------
     MCHF NEWTON-RAPHSON OPTIMIZATION     CODE WRITTEN BY MICHEL DUPUIS
     --------------------------------     -----------------------------
 FORMING FOCK OPERATOR OVER ACTIVE ORBITAL DENSITY, MEMORY=     40791
 STEP CPU TIME =     0.01 TOTAL CPU TIME =          3.6 (      0.1 MIN)
 TOTAL WALL CLOCK TIME=          3.8 SECONDS, CPU UTILIZATION IS    94.46%
 MEMORY DEMAND FOR 2 ELECTRON NTN-RPH CONTRIBUTIONS
      METHOD=DM2     NEEDS     73822 WORDS
      METHOD=TEI     NEEDS     36824 WORDS
 TOTAL AVAILABLE MEMORY IS1500000000 WORDS
 CHOOSING DM2 DRIVEN METHOD...
 FORMING -LGR- + -COU- + -EXC- FROM (IJ//KL) INTEGRALS
 STEP CPU TIME =     0.00 TOTAL CPU TIME =          3.6 (      0.1 MIN)
 TOTAL WALL CLOCK TIME=          3.8 SECONDS, CPU UTILIZATION IS    94.21%
 FORMING -LGR- + -COU- + -EXC- FROM (AJ//KL) INTEGRALS
 STEP CPU TIME =     0.00 TOTAL CPU TIME =          3.6 (      0.1 MIN)
 TOTAL WALL CLOCK TIME=          3.8 SECONDS, CPU UTILIZATION IS    94.21%
 FORMING         -COU-         FROM (AB//KL) INTEGRALS
 STEP CPU TIME =     0.00 TOTAL CPU TIME =          3.6 (      0.1 MIN)
 TOTAL WALL CLOCK TIME=          3.8 SECONDS, CPU UTILIZATION IS    94.21%
 FORMING                 -EXC- FROM (AJ//BL) INTEGRALS
 ..... DONE WITH 2 ELECTRON CONTRIBUTIONS .....
 STEP CPU TIME =     0.00 TOTAL CPU TIME =          3.6 (      0.1 MIN)
 TOTAL WALL CLOCK TIME=          3.8 SECONDS, CPU UTILIZATION IS    94.21%
 ..... DONE WITH 1 ELECTRON CONTRIBUTIONS .....
 STEP CPU TIME =     0.00 TOTAL CPU TIME =          3.6 (      0.1 MIN)
 TOTAL WALL CLOCK TIME=          3.8 SECONDS, CPU UTILIZATION IS    94.21%
 NUMBER OF INDEPENDENT ORBITAL ROTATION PARAMETERS =    93
 ..... DONE SOLVING NEWTON-RAPHSON EQUATIONS .....
 STEP CPU TIME =     0.00 TOTAL CPU TIME =          3.6 (      0.1 MIN)
 TOTAL WALL CLOCK TIME=          3.8 SECONDS, CPU UTILIZATION IS    94.21%
 ..... DONE WITH NTN-RPH ORBITAL ROTATIONS ..... 
 STEP CPU TIME =     0.00 TOTAL CPU TIME =          3.6 (      0.1 MIN)
 TOTAL WALL CLOCK TIME=          3.8 SECONDS, CPU UTILIZATION IS    93.96%
 MAXIMUM MEMORY USED BY NTN-RPH CODE WAS     73822 WORDS.

 ITER     TOTAL ENERGY      DEL(E)  LAGRANGIAN ASYMMETRY   SQCDF  MICIT   DAMP
   1      -22.302293116 -0.302293116  0.068128   29    5 4.919E-01  1   0.0000
   2      -22.360865661 -0.058572544  0.019225   29    5 4.289E-02  1   0.0000
   3      -22.366435528 -0.005569867  0.001799   28    3 4.737E-05  1   0.0000
   4      -22.366453359 -0.000017832  0.000005   28    3 2.964E-10  1   0.0000
   5      -22.366453359  0.000000000  0.000005   28    3 2.964E-10  1   0.0000

          --------------------
          LAGRANGIAN CONVERGED
          --------------------

 FINAL MCSCF ENERGY IS      -22.3664533595 AFTER   5 ITERATIONS

 -MCCI- BASED ON OPTIMIZED ORBITALS
 ----------------------------------

 PLEASE NOTE: IF THE ACTIVE ORBITALS ARE CANONICALIZED BELOW,
 THE FOLLOWING CI EXPANSION COEFFICIENTS AND THE DENSITY DO NOT
 CORRESPOND TO THE PRINTED ORBITALS.  THE PRINTED EXPANSIONS MATCH
 THE ORBITALS USED DURING THE LAST ITERATION.  IF YOU WISH TO SEE
 CI EXPANSIONS BASED ON THE CANONICAL (OR NATURAL) ORBITALS, YOU
 MUST RUN A CI CALCULATION WITH THAT ORBITAL CHOICE READ IN $VEC.

 STATE #    1  ENERGY =     -22.433345754

      CSF      COEF    OCCUPANCY (IGNORING CORE)
      ---      ----    --------- --------- -----
        1    0.999708  20
        2    0.000000  11
        3   -0.024175  02

 STATE #    2  ENERGY =     -22.299560965

      CSF      COEF    OCCUPANCY (IGNORING CORE)
      ---      ----    --------- --------- -----
        1    0.000000  20
        2    1.000000  11
        3    0.000000  02

 DENSITY MATRIX OVER ACTIVE MO-S

             1           2

    1    1.4994156
    2    0.0000000   0.5005844

 FORMING THE "STANDARD FOCK OPERATOR" USING INTEGRALS FROM DISK...
     5 FILLED,    2 ACTIVE, AND   39 VIRTUAL ORBITALS  WILL BE CANONICALIZED

          ----------------------
          MCSCF NATURAL ORBITALS
          ----------------------

                      1          2          3          4          5
                   -1.4235    -0.8670    -0.6693    -0.6688    -0.5766
                     A1         A1         A1         B2         B1  
    1  C  1  S    0.383708   0.661876  -0.057438   0.000000   0.000000
    2  C  1  S   -0.156133  -0.184270  -0.001642   0.000000   0.000000
    3  C  1  S   -0.002432   0.038071  -0.014693   0.000000   0.000000
    4  C  1  X    0.000000   0.000000   0.000000   0.000000   0.458133
    5  C  1  Y    0.000000   0.000000   0.000000   0.647932   0.000000
    6  C  1  Z    0.267530  -0.195805  -0.571989   0.000000   0.000000
    7  C  1  X    0.000000   0.000000   0.000000   0.000000  -0.042298
    8  C  1  Y    0.000000   0.000000   0.000000  -0.154175   0.000000
    9  C  1  Z   -0.089488   0.054990   0.130900   0.000000   0.000000
   10  C  1  X    0.000000   0.000000   0.000000   0.000000  -0.002549
   11  C  1  Y    0.000000   0.000000   0.000000  -0.028806   0.000000
   12  C  1  Z   -0.018240  -0.004256   0.016151   0.000000   0.000000
   13  C  1 XX   -0.012367  -0.004656   0.012326   0.000000   0.000000
   14  C  1 YY   -0.014731   0.022902   0.035734   0.000000   0.000000
   15  C  1 ZZ    0.038858  -0.000723  -0.029175   0.000000   0.000000
   16  C  1 XY    0.000000   0.000000   0.000000   0.000000   0.000000
   17  C  1 XZ    0.000000   0.000000   0.000000   0.000000   0.048377
   18  C  1 YZ    0.000000   0.000000   0.000000  -0.012210   0.000000
   19  O  2  S    0.802172  -0.396405   0.267055   0.000000   0.000000
   20  O  2  S   -0.095111  -0.061334   0.152811   0.000000   0.000000
   21  O  2  S    0.022859   0.002894   0.104711   0.000000   0.000000
   22  O  2  X    0.000000   0.000000   0.000000   0.000000   0.789081
   23  O  2  Y    0.000000   0.000000   0.000000   0.315345   0.000000
   24  O  2  Z   -0.214082  -0.290385   0.746494   0.000000   0.000000
   25  O  2  X    0.000000   0.000000   0.000000   0.000000  -0.011396
   26  O  2  Y    0.000000   0.000000   0.000000  -0.025124   0.000000
   27  O  2  Z    0.081111   0.036172  -0.107058   0.000000   0.000000
   28  O  2  X    0.000000   0.000000   0.000000   0.000000  -0.022682
   29  O  2  Y    0.000000   0.000000   0.000000  -0.022567   0.000000
   30  O  2  Z    0.000517   0.000126  -0.044939   0.000000   0.000000
   31  O  2 XX   -0.001572  -0.002060   0.008821   0.000000   0.000000
   32  O  2 YY   -0.002275  -0.003256   0.009527   0.000000   0.000000
   33  O  2 ZZ    0.025038   0.013438  -0.028610   0.000000   0.000000
   34  O  2 XY    0.000000   0.000000   0.000000   0.000000   0.000000
   35  O  2 XZ    0.000000   0.000000   0.000000   0.000000  -0.027711
   36  O  2 YZ    0.000000   0.000000   0.000000  -0.018979   0.000000
   37  H  3  S    0.035599   0.245141   0.162503  -0.321536   0.000000
   38  H  3  S   -0.003628  -0.010875   0.010396  -0.058867   0.000000
   39  H  3  X    0.000000   0.000000   0.000000   0.000000   0.010612
   40  H  3  Y    0.005427   0.024483   0.011620  -0.014885   0.000000
   41  H  3  Z    0.005079   0.008692  -0.002711  -0.014619   0.000000
   42  H  4  S    0.035599   0.245141   0.162503   0.321536   0.000000
   43  H  4  S   -0.003628  -0.010875   0.010396   0.058867   0.000000
   44  H  4  X    0.000000   0.000000   0.000000   0.000000   0.010612
   45  H  4  Y   -0.005427  -0.024483  -0.011620  -0.014885   0.000000
   46  H  4  Z    0.005079   0.008692  -0.002711   0.014619   0.000000

                      6          7
                    1.4994     0.5006
                     B2         B1  
    1  C  1  S    0.000000   0.000000
    2  C  1  S    0.000000   0.000000
    3  C  1  S    0.000000   0.000000
    4  C  1  X    0.000000   0.768491
    5  C  1  Y   -0.171185   0.000000
    6  C  1  Z    0.000000   0.000000
    7  C  1  X    0.000000   0.206087
    8  C  1  Y   -0.004925   0.000000
    9  C  1  Z    0.000000   0.000000
   10  C  1  X    0.000000   0.165700
   11  C  1  Y    0.056644   0.000000
   12  C  1  Z    0.000000   0.000000
   13  C  1 XX    0.000000   0.000000
   14  C  1 YY    0.000000   0.000000
   15  C  1 ZZ    0.000000   0.000000
   16  C  1 XY    0.000000   0.000000
   17  C  1 XZ    0.000000  -0.020614
   18  C  1 YZ    0.079125   0.000000
   19  O  2  S    0.000000   0.000000
   20  O  2  S    0.000000   0.000000
   21  O  2  S    0.000000   0.000000
   22  O  2  X    0.000000  -0.616921
   23  O  2  Y    0.902635   0.000000
   24  O  2  Z    0.000000   0.000000
   25  O  2  X    0.000000  -0.081793
   26  O  2  Y    0.033191   0.000000
   27  O  2  Z    0.000000   0.000000
   28  O  2  X    0.000000  -0.136303
   29  O  2  Y    0.017981   0.000000
   30  O  2  Z    0.000000   0.000000
   31  O  2 XX    0.000000   0.000000
   32  O  2 YY    0.000000   0.000000
   33  O  2 ZZ    0.000000   0.000000
   34  O  2 XY    0.000000   0.000000
   35  O  2 XZ    0.000000  -0.011370
   36  O  2 YZ   -0.014259   0.000000
   37  H  3  S    0.212400   0.000000
   38  H  3  S    0.153289   0.000000
   39  H  3  X    0.000000   0.026805
   40  H  3  Y   -0.004875   0.000000
   41  H  3  Z    0.000583   0.000000
   42  H  4  S   -0.212400   0.000000
   43  H  4  S   -0.153289   0.000000
   44  H  4  X    0.000000   0.026805
   45  H  4  Y   -0.004875   0.000000
   46  H  4  Z   -0.000583   0.000000

          ------------------------
          MCSCF OPTIMIZED ORBITALS
          ------------------------

                      1          2          3          4          5
                   -1.4235    -0.8670    -0.6693    -0.6688    -0.5766
                     A1         A1         A1         B2         B1  
    1  C  1  S    0.383708   0.661876  -0.057438   0.000000   0.000000
    2  C  1  S   -0.156133  -0.184270  -0.001642   0.000000   0.000000
    3  C  1  S   -0.002432   0.038071  -0.014693   0.000000   0.000000
    4  C  1  X    0.000000   0.000000   0.000000   0.000000   0.458133
    5  C  1  Y    0.000000   0.000000   0.000000   0.647932   0.000000
    6  C  1  Z    0.267530  -0.195805  -0.571989   0.000000   0.000000
    7  C  1  X    0.000000   0.000000   0.000000   0.000000  -0.042298
    8  C  1  Y    0.000000   0.000000   0.000000  -0.154175   0.000000
    9  C  1  Z   -0.089488   0.054990   0.130900   0.000000   0.000000
   10  C  1  X    0.000000   0.000000   0.000000   0.000000  -0.002549
   11  C  1  Y    0.000000   0.000000   0.000000  -0.028806   0.000000
   12  C  1  Z   -0.018240  -0.004256   0.016151   0.000000   0.000000
   13  C  1 XX   -0.012367  -0.004656   0.012326   0.000000   0.000000
   14  C  1 YY   -0.014731   0.022902   0.035734   0.000000   0.000000
   15  C  1 ZZ    0.038858  -0.000723  -0.029175   0.000000   0.000000
   16  C  1 XY    0.000000   0.000000   0.000000   0.000000   0.000000
   17  C  1 XZ    0.000000   0.000000   0.000000   0.000000   0.048377
   18  C  1 YZ    0.000000   0.000000   0.000000  -0.012210   0.000000
   19  O  2  S    0.802172  -0.396405   0.267055   0.000000   0.000000
   20  O  2  S   -0.095111  -0.061334   0.152811   0.000000   0.000000
   21  O  2  S    0.022859   0.002894   0.104711   0.000000   0.000000
   22  O  2  X    0.000000   0.000000   0.000000   0.000000   0.789081
   23  O  2  Y    0.000000   0.000000   0.000000   0.315345   0.000000
   24  O  2  Z   -0.214082  -0.290385   0.746494   0.000000   0.000000
   25  O  2  X    0.000000   0.000000   0.000000   0.000000  -0.011396
   26  O  2  Y    0.000000   0.000000   0.000000  -0.025124   0.000000
   27  O  2  Z    0.081111   0.036172  -0.107058   0.000000   0.000000
   28  O  2  X    0.000000   0.000000   0.000000   0.000000  -0.022682
   29  O  2  Y    0.000000   0.000000   0.000000  -0.022567   0.000000
   30  O  2  Z    0.000517   0.000126  -0.044939   0.000000   0.000000
   31  O  2 XX   -0.001572  -0.002060   0.008821   0.000000   0.000000
   32  O  2 YY   -0.002275  -0.003256   0.009527   0.000000   0.000000
   33  O  2 ZZ    0.025038   0.013438  -0.028610   0.000000   0.000000
   34  O  2 XY    0.000000   0.000000   0.000000   0.000000   0.000000
   35  O  2 XZ    0.000000   0.000000   0.000000   0.000000  -0.027711
   36  O  2 YZ    0.000000   0.000000   0.000000  -0.018979   0.000000
   37  H  3  S    0.035599   0.245141   0.162503  -0.321536   0.000000
   38  H  3  S   -0.003628  -0.010875   0.010396  -0.058867   0.000000
   39  H  3  X    0.000000   0.000000   0.000000   0.000000   0.010612
   40  H  3  Y    0.005427   0.024483   0.011620  -0.014885   0.000000
   41  H  3  Z    0.005079   0.008692  -0.002711  -0.014619   0.000000
   42  H  4  S    0.035599   0.245141   0.162503   0.321536   0.000000
   43  H  4  S   -0.003628  -0.010875   0.010396   0.058867   0.000000
   44  H  4  X    0.000000   0.000000   0.000000   0.000000   0.010612
   45  H  4  Y   -0.005427  -0.024483  -0.011620  -0.014885   0.000000
   46  H  4  Z    0.005079   0.008692  -0.002711   0.014619   0.000000

                      6          7          8          9         10
                   -0.3549     0.0326     0.0769     0.0808     0.0913
                     B2         B1         A1         B2         A1  
    1  C  1  S    0.000000   0.000000  -0.166430   0.000000   0.051851
    2  C  1  S    0.000000   0.000000  -0.016861   0.000000  -0.534784
    3  C  1  S    0.000000   0.000000   3.735202   0.000000  -2.417165
    4  C  1  X    0.000000   0.768491   0.000000   0.000000   0.000000
    5  C  1  Y   -0.171185   0.000000   0.000000  -0.149648   0.000000
    6  C  1  Z    0.000000   0.000000   0.108265   0.000000  -0.055362
    7  C  1  X    0.000000   0.206087   0.000000   0.000000   0.000000
    8  C  1  Y   -0.004925   0.000000   0.000000   0.110260   0.000000
    9  C  1  Z    0.000000   0.000000   0.284880   0.000000  -0.372850
   10  C  1  X    0.000000   0.165700   0.000000   0.000000   0.000000
   11  C  1  Y    0.056644   0.000000   0.000000   2.817181   0.000000
   12  C  1  Z    0.000000   0.000000  -1.204424   0.000000  -1.499471
   13  C  1 XX    0.000000   0.000000   0.006566   0.000000  -0.005534
   14  C  1 YY    0.000000   0.000000  -0.010609   0.000000  -0.005655
   15  C  1 ZZ    0.000000   0.000000   0.020376   0.000000   0.003287
   16  C  1 XY    0.000000   0.000000   0.000000   0.000000   0.000000
   17  C  1 XZ    0.000000  -0.020614   0.000000   0.000000   0.000000
   18  C  1 YZ    0.079125   0.000000   0.000000  -0.009947   0.000000
   19  O  2  S    0.000000   0.000000   0.007169   0.000000   0.176849
   20  O  2  S    0.000000   0.000000  -0.069581   0.000000  -0.041022
   21  O  2  S    0.000000   0.000000  -0.861202   0.000000   2.805219
   22  O  2  X    0.000000  -0.616921   0.000000   0.000000   0.000000
   23  O  2  Y    0.902635   0.000000   0.000000  -0.031652   0.000000
   24  O  2  Z    0.000000   0.000000  -0.054556   0.000000   0.036581
   25  O  2  X    0.000000  -0.081793   0.000000   0.000000   0.000000
   26  O  2  Y    0.033191   0.000000   0.000000   0.056179   0.000000
   27  O  2  Z    0.000000   0.000000   0.034584   0.000000  -0.111651
   28  O  2  X    0.000000  -0.136303   0.000000   0.000000   0.000000
   29  O  2  Y    0.017981   0.000000   0.000000  -0.720740   0.000000
   30  O  2  Z    0.000000   0.000000   0.534075   0.000000  -0.557380
   31  O  2 XX    0.000000   0.000000   0.001427   0.000000   0.000334
   32  O  2 YY    0.000000   0.000000  -0.000439   0.000000   0.000688
   33  O  2 ZZ    0.000000   0.000000  -0.003018   0.000000   0.004731
   34  O  2 XY    0.000000   0.000000   0.000000   0.000000   0.000000
   35  O  2 XZ    0.000000  -0.011370   0.000000   0.000000   0.000000
   36  O  2 YZ   -0.014259   0.000000   0.000000   0.003516   0.000000
   37  H  3  S    0.212400   0.000000  -0.004752   0.038886   0.008315
   38  H  3  S    0.153289   0.000000  -1.211262   1.890896  -0.089090
   39  H  3  X    0.000000   0.026805   0.000000   0.000000   0.000000
   40  H  3  Y   -0.004875   0.000000  -0.004992   0.018546   0.000054
   41  H  3  Z    0.000583   0.000000  -0.014525   0.010791   0.001449
   42  H  4  S   -0.212400   0.000000  -0.004752  -0.038886   0.008315
   43  H  4  S   -0.153289   0.000000  -1.211262  -1.890896  -0.089090
   44  H  4  X    0.000000   0.026805   0.000000   0.000000   0.000000
   45  H  4  Y   -0.004875   0.000000   0.004992   0.018546  -0.000054
   46  H  4  Z   -0.000583   0.000000  -0.014525  -0.010791   0.001449

                     11         12         13         14         15
                    0.1163     0.1713     0.2052     0.2238     0.2630
                     B1         A1         B2         A1         B1  
    1  C  1  S    0.000000   0.170111   0.000000   0.009962   0.000000
    2  C  1  S    0.000000   0.916460   0.000000   2.127230   0.000000
    3  C  1  S    0.000000   8.736562   0.000000  -0.525812   0.000000
    4  C  1  X   -0.263468   0.000000   0.000000   0.000000   0.004771
    5  C  1  Y    0.000000   0.000000   0.265278   0.000000   0.000000
    6  C  1  Z    0.000000  -0.139117   0.000000  -0.004711   0.000000
    7  C  1  X   -0.331104   0.000000   0.000000   0.000000  -0.218773
    8  C  1  Y    0.000000   0.000000   0.525492   0.000000   0.000000
    9  C  1  Z    0.000000  -0.281717   0.000000   0.411748   0.000000
   10  C  1  X    1.417871   0.000000   0.000000   0.000000  -1.092265
   11  C  1  Y    0.000000   0.000000   2.282970   0.000000   0.000000
   12  C  1  Z    0.000000  -1.646756   0.000000  -0.385291   0.000000
   13  C  1 XX    0.000000   0.011866   0.000000  -0.039518   0.000000
   14  C  1 YY    0.000000  -0.009770   0.000000  -0.018837   0.000000
   15  C  1 ZZ    0.000000  -0.014781   0.000000   0.020077   0.000000
   16  C  1 XY    0.000000   0.000000   0.000000   0.000000   0.000000
   17  C  1 XZ   -0.008217   0.000000   0.000000   0.000000   0.003020
   18  C  1 YZ    0.000000   0.000000  -0.015806   0.000000   0.000000
   19  O  2  S    0.000000  -0.062432   0.000000  -0.002216   0.000000
   20  O  2  S    0.000000   0.090005   0.000000  -0.259024   0.000000
   21  O  2  S    0.000000  -0.816414   0.000000  -1.565591   0.000000
   22  O  2  X    0.027933   0.000000   0.000000   0.000000  -0.230989
   23  O  2  Y    0.000000   0.000000  -0.176347   0.000000   0.000000
   24  O  2  Z    0.000000   0.050954   0.000000  -0.102107   0.000000
   25  O  2  X    0.105963   0.000000   0.000000   0.000000  -0.284733
   26  O  2  Y    0.000000   0.000000  -0.183032   0.000000   0.000000
   27  O  2  Z    0.000000  -0.002702   0.000000   0.046605   0.000000
   28  O  2  X   -0.369525   0.000000   0.000000   0.000000   1.950226
   29  O  2  Y    0.000000   0.000000   0.262055   0.000000   0.000000
   30  O  2  Z    0.000000   0.116204   0.000000   2.287124   0.000000
   31  O  2 XX    0.000000   0.003933   0.000000  -0.002867   0.000000
   32  O  2 YY    0.000000  -0.004228   0.000000  -0.002368   0.000000
   33  O  2 ZZ    0.000000   0.001326   0.000000   0.015292   0.000000
   34  O  2 XY    0.000000   0.000000   0.000000   0.000000   0.000000
   35  O  2 XZ    0.006973   0.000000   0.000000   0.000000   0.012208
   36  O  2 YZ    0.000000   0.000000  -0.000425   0.000000   0.000000
   37  H  3  S    0.000000  -0.089179  -0.018476  -0.014563   0.000000
   38  H  3  S    0.000000  -5.043907   4.047033   0.547558   0.000000
   39  H  3  X    0.002546   0.000000   0.000000   0.000000   0.012231
   40  H  3  Y    0.000000  -0.001378   0.012432   0.008436   0.000000
   41  H  3  Z    0.000000  -0.001194   0.011786  -0.024622   0.000000
   42  H  4  S    0.000000  -0.089179   0.018476  -0.014563   0.000000
   43  H  4  S    0.000000  -5.043907  -4.047033   0.547558   0.000000
   44  H  4  X    0.002546   0.000000   0.000000   0.000000   0.012231
   45  H  4  Y    0.000000   0.001378   0.012432  -0.008436   0.000000
   46  H  4  Z    0.000000  -0.001194  -0.011786  -0.024622   0.000000

                     16         17         18         19         20
                    0.2914     0.3634     0.5005     0.5980     0.6704
                     B2         A1         A1         A1         B2  
    1  C  1  S    0.000000   0.059814  -0.462848  -0.638302   0.000000
    2  C  1  S    0.000000  -1.422156  -3.891798   1.586049   0.000000
    3  C  1  S    0.000000  -3.956673  -1.509303   4.148499   0.000000
    4  C  1  X    0.000000   0.000000   0.000000   0.000000   0.000000
    5  C  1  Y    0.242585   0.000000   0.000000   0.000000  -0.840033
    6  C  1  Z    0.000000   0.110964  -0.019555   0.380280   0.000000
    7  C  1  X    0.000000   0.000000   0.000000   0.000000   0.000000
    8  C  1  Y    0.588253   0.000000   0.000000   0.000000   0.774763
    9  C  1  Z    0.000000  -0.192845  -3.146725   0.117442   0.000000
   10  C  1  X    0.000000   0.000000   0.000000   0.000000   0.000000
   11  C  1  Y    3.232570   0.000000   0.000000   0.000000   1.520397
   12  C  1  Z    0.000000  -1.275219  -0.212843  -0.812580   0.000000
   13  C  1 XX    0.000000   0.033322   0.006053  -0.198119   0.000000
   14  C  1 YY    0.000000   0.022387  -0.021266   0.230158   0.000000
   15  C  1 ZZ    0.000000  -0.042269  -0.046665   0.043092   0.000000
   16  C  1 XY    0.000000   0.000000   0.000000   0.000000   0.000000
   17  C  1 XZ    0.000000   0.000000   0.000000   0.000000   0.000000
   18  C  1 YZ   -0.011668   0.000000   0.000000   0.000000  -0.254790
   19  O  2  S    0.000000  -0.245593  -0.004990   0.135407   0.000000
   20  O  2  S    0.000000  -1.209113   1.542773  -0.372217   0.000000
   21  O  2  S    0.000000   5.906149   5.358526  -1.077361   0.000000
   22  O  2  X    0.000000   0.000000   0.000000   0.000000   0.000000
   23  O  2  Y    0.157695   0.000000   0.000000   0.000000   0.362999
   24  O  2  Z    0.000000   0.035827  -0.395711  -0.069466   0.000000
   25  O  2  X    0.000000   0.000000   0.000000   0.000000   0.000000
   26  O  2  Y    0.228047   0.000000   0.000000   0.000000  -0.010942
   27  O  2  Z    0.000000  -0.246578  -1.004292   0.249412   0.000000
   28  O  2  X    0.000000   0.000000   0.000000   0.000000   0.000000
   29  O  2  Y   -2.272735   0.000000   0.000000   0.000000  -0.486657
   30  O  2  Z    0.000000  -0.872023  -1.652955   0.448599   0.000000
   31  O  2 XX    0.000000   0.021174  -0.008074   0.001479   0.000000
   32  O  2 YY    0.000000   0.022106  -0.010349   0.006641   0.000000
   33  O  2 ZZ    0.000000   0.017552   0.022614  -0.006871   0.000000
   34  O  2 XY    0.000000   0.000000   0.000000   0.000000   0.000000
   35  O  2 XZ    0.000000   0.000000   0.000000   0.000000   0.000000
   36  O  2 YZ   -0.018038   0.000000   0.000000   0.000000   0.028158
   37  H  3  S    0.045986  -0.017786  -0.072832   0.561877  -0.461461
   38  H  3  S    3.058468   0.464020  -0.452381  -2.468747   2.271019
   39  H  3  X    0.000000   0.000000   0.000000   0.000000   0.000000
   40  H  3  Y   -0.000469  -0.021881   0.001912  -0.338346   0.200683
   41  H  3  Z    0.000708   0.039274  -0.025421  -0.086914   0.274949
   42  H  4  S   -0.045986  -0.017786  -0.072832   0.561877   0.461461
   43  H  4  S   -3.058468   0.464020  -0.452381  -2.468747  -2.271019
   44  H  4  X    0.000000   0.000000   0.000000   0.000000   0.000000
   45  H  4  Y   -0.000469   0.021881  -0.001912   0.338346   0.200683
   46  H  4  Z   -0.000708   0.039274  -0.025421  -0.086914  -0.274949

                     21         22         23         24         25
                    0.7622     0.7941     0.8387     0.9689     1.0261
                     B1         A1         B2         A2         A1  
    1  C  1  S    0.000000  -0.959192   0.000000   0.000000  -2.248038
    2  C  1  S    0.000000   4.610798   0.000000   0.000000   6.286320
    3  C  1  S    0.000000   0.004407   0.000000   0.000000   0.649206
    4  C  1  X   -1.488178   0.000000   0.000000   0.000000   0.000000
    5  C  1  Y    0.000000   0.000000  -0.881411   0.000000   0.000000
    6  C  1  Z    0.000000   0.950278   0.000000   0.000000  -1.091361
    7  C  1  X    2.173789   0.000000   0.000000   0.000000   0.000000
    8  C  1  Y    0.000000   0.000000   2.891490   0.000000   0.000000
    9  C  1  Z    0.000000  -0.620802   0.000000   0.000000   2.766357
   10  C  1  X   -0.360344   0.000000   0.000000   0.000000   0.000000
   11  C  1  Y    0.000000   0.000000   1.347945   0.000000   0.000000
   12  C  1  Z    0.000000   0.327623   0.000000   0.000000  -0.006798
   13  C  1 XX    0.000000   0.121478   0.000000   0.000000  -0.003888
   14  C  1 YY    0.000000  -0.033252   0.000000   0.000000  -0.078796
   15  C  1 ZZ    0.000000  -0.123335   0.000000   0.000000   0.343384
   16  C  1 XY    0.000000   0.000000   0.000000  -0.290274   0.000000
   17  C  1 XZ   -0.035717   0.000000   0.000000   0.000000   0.000000
   18  C  1 YZ    0.000000   0.000000   0.083842   0.000000   0.000000
   19  O  2  S    0.000000  -0.175960   0.000000   0.000000   0.542302
   20  O  2  S    0.000000  -0.356046   0.000000   0.000000  -1.818101
   21  O  2  S    0.000000  -2.102372   0.000000   0.000000  -3.550714
   22  O  2  X    0.078042   0.000000   0.000000   0.000000   0.000000
   23  O  2  Y    0.000000   0.000000  -0.148423   0.000000   0.000000
   24  O  2  Z    0.000000   0.271874   0.000000   0.000000  -0.404363
   25  O  2  X   -0.230374   0.000000   0.000000   0.000000   0.000000
   26  O  2  Y    0.000000   0.000000  -0.275753   0.000000   0.000000
   27  O  2  Z    0.000000   0.555974   0.000000   0.000000   0.550184
   28  O  2  X   -0.202349   0.000000   0.000000   0.000000   0.000000
   29  O  2  Y    0.000000   0.000000  -0.925676   0.000000   0.000000
   30  O  2  Z    0.000000   0.713457   0.000000   0.000000   1.678279
   31  O  2 XX    0.000000   0.002811   0.000000   0.000000   0.069163
   32  O  2 YY    0.000000  -0.013414   0.000000   0.000000   0.052340
   33  O  2 ZZ    0.000000   0.040717   0.000000   0.000000  -0.120823
   34  O  2 XY    0.000000   0.000000   0.000000  -0.020575   0.000000
   35  O  2 XZ    0.032874   0.000000   0.000000   0.000000   0.000000
   36  O  2 YZ    0.000000   0.000000  -0.009406   0.000000   0.000000
   37  H  3  S    0.000000  -0.602849   0.649693   0.000000  -0.207378
   38  H  3  S    0.000000  -0.072202   2.025906   0.000000   0.038524
   39  H  3  X   -0.055984   0.000000   0.000000   0.580544   0.000000
   40  H  3  Y    0.000000  -0.130923   0.154337   0.000000  -0.076183
   41  H  3  Z    0.000000  -0.063000  -0.068727   0.000000  -0.230254
   42  H  4  S    0.000000  -0.602849  -0.649693   0.000000  -0.207378
   43  H  4  S    0.000000  -0.072202  -2.025906   0.000000   0.038524
   44  H  4  X   -0.055984   0.000000   0.000000  -0.580544   0.000000
   45  H  4  Y    0.000000   0.130923   0.154337   0.000000   0.076183
   46  H  4  Z    0.000000  -0.063000   0.068727   0.000000  -0.230254

                     26         27         28         29         30
                    1.2395     1.3591     1.3760     1.3847     1.3927
                     B1         B2         B2         B1         A1  
    1  C  1  S    0.000000   0.000000   0.000000   0.000000  -1.062224
    2  C  1  S    0.000000   0.000000   0.000000   0.000000  -2.909593
    3  C  1  S    0.000000   0.000000   0.000000   0.000000  -1.220475
    4  C  1  X   -0.134969   0.000000   0.000000  -0.187508   0.000000
    5  C  1  Y    0.000000  -0.223928  -0.223898   0.000000   0.000000
    6  C  1  Z    0.000000   0.000000   0.000000   0.000000  -0.484956
    7  C  1  X   -0.599767   0.000000   0.000000  -0.396686   0.000000
    8  C  1  Y    0.000000   1.570006  -0.297582   0.000000   0.000000
    9  C  1  Z    0.000000   0.000000   0.000000   0.000000  -2.133384
   10  C  1  X   -0.062198   0.000000   0.000000   0.439523   0.000000
   11  C  1  Y    0.000000   0.456881   0.677384   0.000000   0.000000
   12  C  1  Z    0.000000   0.000000   0.000000   0.000000  -0.339635
   13  C  1 XX    0.000000   0.000000   0.000000   0.000000   0.117053
   14  C  1 YY    0.000000   0.000000   0.000000   0.000000   0.340256
   15  C  1 ZZ    0.000000   0.000000   0.000000   0.000000  -0.478393
   16  C  1 XY    0.000000   0.000000   0.000000   0.000000   0.000000
   17  C  1 XZ   -0.319350   0.000000   0.000000  -0.376009   0.000000
   18  C  1 YZ    0.000000   0.122906  -0.398858   0.000000   0.000000
   19  O  2  S    0.000000   0.000000   0.000000   0.000000   0.221790
   20  O  2  S    0.000000   0.000000   0.000000   0.000000   1.599124
   21  O  2  S    0.000000   0.000000   0.000000   0.000000   3.657149
   22  O  2  X    0.559611   0.000000   0.000000  -1.227095   0.000000
   23  O  2  Y    0.000000  -0.168474  -1.260008   0.000000   0.000000
   24  O  2  Z    0.000000   0.000000   0.000000   0.000000   0.983932
   25  O  2  X   -0.369601   0.000000   0.000000   2.145279   0.000000
   26  O  2  Y    0.000000  -0.143046   2.190723   0.000000   0.000000
   27  O  2  Z    0.000000   0.000000   0.000000   0.000000  -3.037873
   28  O  2  X    0.289150   0.000000   0.000000  -0.699108   0.000000
   29  O  2  Y    0.000000  -0.290751  -0.819833   0.000000   0.000000
   30  O  2  Z    0.000000   0.000000   0.000000   0.000000  -0.493060
   31  O  2 XX    0.000000   0.000000   0.000000   0.000000   0.021843
   32  O  2 YY    0.000000   0.000000   0.000000   0.000000   0.045341
   33  O  2 ZZ    0.000000   0.000000   0.000000   0.000000  -0.009915
   34  O  2 XY    0.000000   0.000000   0.000000   0.000000   0.000000
   35  O  2 XZ    0.043051   0.000000   0.000000   0.062612   0.000000
   36  O  2 YZ    0.000000  -0.012980   0.057348   0.000000   0.000000
   37  H  3  S    0.000000   0.474255  -0.073676   0.000000  -0.085964
   38  H  3  S    0.000000   0.733329   0.268422   0.000000  -0.035540
   39  H  3  X    0.671714   0.000000   0.000000   0.154028   0.000000
   40  H  3  Y    0.000000  -0.595245   0.074076   0.000000  -0.033577
   41  H  3  Z    0.000000   0.567093  -0.088727   0.000000   0.145478
   42  H  4  S    0.000000  -0.474255   0.073676   0.000000  -0.085964
   43  H  4  S    0.000000  -0.733329  -0.268422   0.000000  -0.035540
   44  H  4  X    0.671714   0.000000   0.000000   0.154028   0.000000
   45  H  4  Y    0.000000  -0.595245   0.074076   0.000000   0.033577
   46  H  4  Z    0.000000  -0.567093   0.088727   0.000000   0.145478

                     31         32         33         34         35
                    1.4735     1.7177     1.7183     1.7575     1.7894
                     A1         B1         A1         B2         A2  
    1  C  1  S    0.679669   0.000000   1.691891   0.000000   0.000000
    2  C  1  S   -0.422061   0.000000  -3.094865   0.000000   0.000000
    3  C  1  S    0.645547   0.000000  -0.796839   0.000000   0.000000
    4  C  1  X    0.000000  -0.305435   0.000000   0.000000   0.000000
    5  C  1  Y    0.000000   0.000000   0.000000   1.150746   0.000000
    6  C  1  Z    0.160750   0.000000  -0.279689   0.000000   0.000000
    7  C  1  X    0.000000  -0.224373   0.000000   0.000000   0.000000
    8  C  1  Y    0.000000   0.000000   0.000000  -0.858038   0.000000
    9  C  1  Z    1.391778   0.000000  -0.489707   0.000000   0.000000
   10  C  1  X    0.000000   0.031082   0.000000   0.000000   0.000000
   11  C  1  Y    0.000000   0.000000   0.000000   0.349801   0.000000
   12  C  1  Z    0.027241   0.000000  -0.540755   0.000000   0.000000
   13  C  1 XX    0.242477   0.000000   0.633314   0.000000   0.000000
   14  C  1 YY    0.000813   0.000000  -0.743478   0.000000   0.000000
   15  C  1 ZZ   -0.209391   0.000000  -0.040063   0.000000   0.000000
   16  C  1 XY    0.000000   0.000000   0.000000   0.000000   1.153278
   17  C  1 XZ    0.000000   1.008822   0.000000   0.000000   0.000000
   18  C  1 YZ    0.000000   0.000000   0.000000   0.519882   0.000000
   19  O  2  S   -0.655918   0.000000   1.592561   0.000000   0.000000
   20  O  2  S    0.184245   0.000000  -1.917999   0.000000   0.000000
   21  O  2  S   -1.078310   0.000000   3.165540   0.000000   0.000000
   22  O  2  X    0.000000  -0.439813   0.000000   0.000000   0.000000
   23  O  2  Y    0.000000   0.000000   0.000000  -0.538989   0.000000
   24  O  2  Z    0.426704   0.000000   0.073423   0.000000   0.000000
   25  O  2  X    0.000000   0.188075   0.000000   0.000000   0.000000
   26  O  2  Y    0.000000   0.000000   0.000000   0.471028   0.000000
   27  O  2  Z   -0.322398   0.000000  -0.282066   0.000000   0.000000
   28  O  2  X    0.000000   0.075868   0.000000   0.000000   0.000000
   29  O  2  Y    0.000000   0.000000   0.000000   0.006323   0.000000
   30  O  2  Z    0.232120   0.000000  -0.688827   0.000000   0.000000
   31  O  2 XX    0.034135   0.000000   0.056047   0.000000   0.000000
   32  O  2 YY   -0.032039   0.000000  -0.086775   0.000000   0.000000
   33  O  2 ZZ    0.017644   0.000000   0.044582   0.000000   0.000000
   34  O  2 XY    0.000000   0.000000   0.000000   0.000000   0.131454
   35  O  2 XZ    0.000000  -0.097869   0.000000   0.000000   0.000000
   36  O  2 YZ    0.000000   0.000000   0.000000  -0.113102   0.000000
   37  H  3  S    0.421663   0.000000   0.255290  -0.037134   0.000000
   38  H  3  S    0.019648   0.000000  -0.249864   0.610946   0.000000
   39  H  3  X    0.000000   0.619327   0.000000   0.000000   0.651083
   40  H  3  Y    0.168647   0.000000  -0.425455   0.519072   0.000000
   41  H  3  Z   -0.825701   0.000000   0.150786   0.548457   0.000000
   42  H  4  S    0.421663   0.000000   0.255290   0.037134   0.000000
   43  H  4  S    0.019648   0.000000  -0.249864  -0.610946   0.000000
   44  H  4  X    0.000000   0.619327   0.000000   0.000000  -0.651083
   45  H  4  Y   -0.168647   0.000000   0.425455   0.519072   0.000000
   46  H  4  Z   -0.825701   0.000000   0.150786  -0.548457   0.000000

                     36         37         38         39         40
                    1.8735     2.2306     2.4374     2.6395     3.0770
                     A1         A1         B2         A1         A1  
    1  C  1  S    0.141768   2.758811   0.000000  -1.470502   0.320734
    2  C  1  S   -3.371929   1.120073   0.000000  -0.996677   1.406521
    3  C  1  S    1.265844   1.051272   0.000000   0.604112  -0.120856
    4  C  1  X    0.000000   0.000000   0.000000   0.000000   0.000000
    5  C  1  Y    0.000000   0.000000   1.800951   0.000000   0.000000
    6  C  1  Z   -1.053157  -0.853411   0.000000   0.555136  -0.004481
    7  C  1  X    0.000000   0.000000   0.000000   0.000000   0.000000
    8  C  1  Y    0.000000   0.000000   0.659902   0.000000   0.000000
    9  C  1  Z   -1.838742   0.326272   0.000000  -0.911163   0.344329
   10  C  1  X    0.000000   0.000000   0.000000   0.000000   0.000000
   11  C  1  Y    0.000000   0.000000   0.614292   0.000000   0.000000
   12  C  1  Z    0.380620  -0.101787   0.000000  -0.002069   0.081896
   13  C  1 XX    0.581108  -1.286526   0.000000   0.231659  -0.633876
   14  C  1 YY    0.178450  -0.278890   0.000000  -0.916418  -0.326750
   15  C  1 ZZ   -0.647797   0.067382   0.000000   1.432466  -0.915535
   16  C  1 XY    0.000000   0.000000   0.000000   0.000000   0.000000
   17  C  1 XZ    0.000000   0.000000   0.000000   0.000000   0.000000
   18  C  1 YZ    0.000000   0.000000  -1.238800   0.000000   0.000000
   19  O  2  S   -2.176171  -0.630864   0.000000  -2.291249   0.436461
   20  O  2  S    5.545580   0.255278   0.000000   2.760651  -0.351725
   21  O  2  S   -0.012191  -0.895921   0.000000  -0.007755  -0.788326
   22  O  2  X    0.000000   0.000000   0.000000   0.000000   0.000000
   23  O  2  Y    0.000000   0.000000   0.283766   0.000000   0.000000
   24  O  2  Z   -0.619555   0.394543   0.000000   0.976834  -0.319180
   25  O  2  X    0.000000   0.000000   0.000000   0.000000   0.000000
   26  O  2  Y    0.000000   0.000000  -0.196562   0.000000   0.000000
   27  O  2  Z   -0.790638  -0.167794   0.000000  -1.108168   0.165306
   28  O  2  X    0.000000   0.000000   0.000000   0.000000   0.000000
   29  O  2  Y    0.000000   0.000000  -0.451071   0.000000   0.000000
   30  O  2  Z   -0.504677   0.332710   0.000000  -0.099912   0.354819
   31  O  2 XX    0.065268  -0.081821   0.000000   0.274179   0.775817
   32  O  2 YY    0.012885   0.055780   0.000000  -0.126708  -0.785269
   33  O  2 ZZ   -0.095931   0.021952   0.000000  -0.084110   0.018800
   34  O  2 XY    0.000000   0.000000   0.000000   0.000000   0.000000
   35  O  2 XZ    0.000000   0.000000   0.000000   0.000000   0.000000
   36  O  2 YZ    0.000000   0.000000   0.232636   0.000000   0.000000
   37  H  3  S   -0.082796  -0.904525   1.515622   0.567239   0.100248
   38  H  3  S   -0.450431  -0.673971   1.028570  -0.176040   0.103003
   39  H  3  X    0.000000   0.000000   0.000000   0.000000   0.000000
   40  H  3  Y   -0.377420  -0.812253   0.860866   0.005331   0.243877
   41  H  3  Z    0.149608  -0.311921   0.487662   0.701965  -0.028146
   42  H  4  S   -0.082796  -0.904525  -1.515622   0.567239   0.100248
   43  H  4  S   -0.450431  -0.673971  -1.028570  -0.176040   0.103003
   44  H  4  X    0.000000   0.000000   0.000000   0.000000   0.000000
   45  H  4  Y    0.377420   0.812253   0.860866  -0.005331  -0.243877
   46  H  4  Z    0.149608  -0.311921  -0.487662   0.701965  -0.028146

                     41         42         43         44         45
                    3.1004     3.4620     3.4953     3.7230     4.0432
                     A2         A1         B1         B2         A1  
    1  C  1  S    0.000000   0.145420   0.000000   0.000000  -2.141868
    2  C  1  S    0.000000  -1.489047   0.000000   0.000000  -0.402796
    3  C  1  S    0.000000  -0.405477   0.000000   0.000000   0.078412
    4  C  1  X    0.000000   0.000000   0.280883   0.000000   0.000000
    5  C  1  Y    0.000000   0.000000   0.000000  -0.292661   0.000000
    6  C  1  Z    0.000000  -0.777234   0.000000   0.000000  -1.127152
    7  C  1  X    0.000000   0.000000   0.015124   0.000000   0.000000
    8  C  1  Y    0.000000   0.000000   0.000000  -0.132770   0.000000
    9  C  1  Z    0.000000  -0.093740   0.000000   0.000000  -0.504319
   10  C  1  X    0.000000   0.000000  -0.083666   0.000000   0.000000
   11  C  1  Y    0.000000   0.000000   0.000000  -0.142639   0.000000
   12  C  1  Z    0.000000  -0.005474   0.000000   0.000000   0.069227
   13  C  1 XX    0.000000   0.642117   0.000000   0.000000   0.111213
   14  C  1 YY    0.000000   2.027845   0.000000   0.000000  -0.510152
   15  C  1 ZZ    0.000000   1.320110   0.000000   0.000000  -1.030908
   16  C  1 XY   -0.307241   0.000000   0.000000   0.000000   0.000000
   17  C  1 XZ    0.000000   0.000000   0.606474   0.000000   0.000000
   18  C  1 YZ    0.000000   0.000000   0.000000   1.109465   0.000000
   19  O  2  S    0.000000   0.212460   0.000000   0.000000  -0.794233
   20  O  2  S    0.000000  -0.615567   0.000000   0.000000   3.062605
   21  O  2  S    0.000000   1.270582   0.000000   0.000000   0.348693
   22  O  2  X    0.000000   0.000000   0.018111   0.000000   0.000000
   23  O  2  Y    0.000000   0.000000   0.000000  -0.076755   0.000000
   24  O  2  Z    0.000000   0.217029   0.000000   0.000000  -0.286768
   25  O  2  X    0.000000   0.000000  -0.401972   0.000000   0.000000
   26  O  2  Y    0.000000   0.000000   0.000000  -0.393927   0.000000
   27  O  2  Z    0.000000   0.191003   0.000000   0.000000  -1.595405
   28  O  2  X    0.000000   0.000000   0.085569   0.000000   0.000000
   29  O  2  Y    0.000000   0.000000   0.000000   0.233874   0.000000
   30  O  2  Z    0.000000  -0.563034   0.000000   0.000000   0.064720
   31  O  2 XX    0.000000   0.114132   0.000000   0.000000  -0.617100
   32  O  2 YY    0.000000  -0.506913   0.000000   0.000000  -0.473492
   33  O  2 ZZ    0.000000   0.222595   0.000000   0.000000   1.218632
   34  O  2 XY    0.998550   0.000000   0.000000   0.000000   0.000000
   35  O  2 XZ    0.000000   0.000000   1.087957   0.000000   0.000000
   36  O  2 YZ    0.000000   0.000000   0.000000   1.094870   0.000000
   37  H  3  S    0.000000  -1.180386   0.000000  -0.615661   0.534262
   38  H  3  S    0.000000   0.089504   0.000000  -0.101968  -0.064494
   39  H  3  X   -0.130487   0.000000   0.072511   0.000000   0.000000
   40  H  3  Y    0.000000  -0.739711   0.000000  -0.398563   0.320716
   41  H  3  Z    0.000000  -0.542086   0.000000  -0.027999   0.272741
   42  H  4  S    0.000000  -1.180386   0.000000   0.615661   0.534262
   43  H  4  S    0.000000   0.089504   0.000000   0.101968  -0.064494
   44  H  4  X    0.130487   0.000000   0.072511   0.000000   0.000000
   45  H  4  Y    0.000000   0.739711   0.000000  -0.398563  -0.320716
   46  H  4  Z    0.000000  -0.542086   0.000000   0.027999   0.272741

                     46
                    6.0346
                     A1  
    1  C  1  S   -0.216785
    2  C  1  S   -0.385886
    3  C  1  S    0.888121
    4  C  1  X    0.000000
    5  C  1  Y    0.000000
    6  C  1  Z    0.189885
    7  C  1  X    0.000000
    8  C  1  Y    0.000000
    9  C  1  Z   -0.460556
   10  C  1  X    0.000000
   11  C  1  Y    0.000000
   12  C  1  Z    0.223977
   13  C  1 XX   -0.032022
   14  C  1 YY   -0.236632
   15  C  1 ZZ    0.278358
   16  C  1 XY    0.000000
   17  C  1 XZ    0.000000
   18  C  1 YZ    0.000000
   19  O  2  S    2.798590
   20  O  2  S    1.108358
   21  O  2  S   -1.185208
   22  O  2  X    0.000000
   23  O  2  Y    0.000000
   24  O  2  Z    0.214797
   25  O  2  X    0.000000
   26  O  2  Y    0.000000
   27  O  2  Z   -0.328577
   28  O  2  X    0.000000
   29  O  2  Y    0.000000
   30  O  2  Z    0.040569
   31  O  2 XX   -1.478873
   32  O  2 YY   -1.451611
   33  O  2 ZZ   -1.513283
   34  O  2 XY    0.000000
   35  O  2 XZ    0.000000
   36  O  2 YZ    0.000000
   37  H  3  S    0.116077
   38  H  3  S   -0.158948
   39  H  3  X    0.000000
   40  H  3  Y   -0.023804
   41  H  3  Z    0.132021
   42  H  4  S    0.116077
   43  H  4  S   -0.158948
   44  H  4  X    0.000000
   45  H  4  Y    0.023804
   46  H  4  Z    0.132021
 .....DONE WITH MCSCF ITERATIONS.....
 STEP CPU TIME =     0.08 TOTAL CPU TIME =          3.7 (      0.1 MIN)
 TOTAL WALL CLOCK TIME=          3.9 SECONDS, CPU UTILIZATION IS    93.85%

     ----------------------------------------------------------------
     PROPERTY VALUES FOR THE MCSCF SELF-CONSISTENT FIELD WAVEFUNCTION
     ----------------------------------------------------------------

 THIS MCSCF AVERAGED   2 ROOTS OF DIFFERENT ENERGY.
 SINCE NO STATE-SPECIFIC DENSITY MATRIX IS AVAILABLE,
 PROPERTIES WILL NOT BE COMPUTED.

                580000  WORDS OF DYNAMIC MEMORY USED
 EXECUTION OF GAMESS TERMINATED NORMALLY Mon May 28 12:04:46 2018
 DDI: 263640 bytes (0.3 MB / 0 MWords) used by master data server.

 ----------------------------------------
 CPU timing information for all processes
 ========================================
 0: 0.983 + 3.272 = 4.256
 ----------------------------------------
 ddikick.x: exited gracefully.
----- accounting info -----
Files used on the master node lpqlx139.ups-tlse.fr were:
-rw-r--r-- 1 scemama scemama   36047 May 28 12:04 /dev/shm/scemama/form.gamess.F05
-rw-r--r-- 1 scemama scemama 1980176 May 28 12:04 /dev/shm/scemama/form.gamess.F08
-rw-r--r-- 1 scemama scemama  368688 May 28 12:04 /dev/shm/scemama/form.gamess.F09
-rw-r--r-- 1 scemama scemama 1897760 May 28 12:04 /dev/shm/scemama/form.gamess.F10
-rw-r--r-- 1 scemama scemama  275200 May 28 12:04 /dev/shm/scemama/form.gamess.F11
-rw-r--r-- 1 scemama scemama     248 May 28 12:04 /dev/shm/scemama/form.gamess.F12
-rw-r--r-- 1 scemama scemama  400008 May 28 12:04 /dev/shm/scemama/form.gamess.F14
-rw-r--r-- 1 scemama scemama  180248 May 28 12:04 /dev/shm/scemama/form.gamess.F15
-rw-r--r-- 1 scemama scemama   35712 May 28 12:04 /dev/shm/scemama/form.gamess.F16
Mon May 28 12:04:49 CEST 2018
0.123u 0.044s 0:07.94 2.0%	0+0k 1120+0io 10pf+0w
